     222
 i =        1, E =     -5591.9150073381
 Ag         0.0000000000        0.0000000000        0.0000000000
 Ag         2.8920667351        0.0000000000        0.0000000000
 Ag         5.7841334701        0.0000000000        0.0000000000
 Ag         8.6762002052        0.0000000000        0.0000000000
 Ag        11.5682669402        0.0000000000        0.0000000000
 Ag        14.4603336753        0.0000000000        0.0000000000
 Ag        17.3524004103        0.0000000000        0.0000000000
 Ag         1.4460333675        2.5046032620        0.0000000000
 Ag         4.3381001026        2.5046032620        0.0000000000
 Ag         7.2301668376        2.5046032620        0.0000000000
 Ag        10.1222335727        2.5046032620        0.0000000000
 Ag        13.0143003077        2.5046032620        0.0000000000
 Ag        15.9063670428        2.5046032620        0.0000000000
 Ag        18.7984337778        2.5046032620        0.0000000000
 Ag         2.8920667351        5.0092065240        0.0000000000
 Ag         5.7841334701        5.0092065240        0.0000000000
 Ag         8.6762002052        5.0092065240        0.0000000000
 Ag        11.5682669402        5.0092065240        0.0000000000
 Ag        14.4603336753        5.0092065240        0.0000000000
 Ag        17.3524004103        5.0092065240        0.0000000000
 Ag        20.2444671454        5.0092065240        0.0000000000
 Ag         4.3381001026        7.5138097860        0.0000000000
 Ag         7.2301668376        7.5138097860        0.0000000000
 Ag        10.1222335727        7.5138097860        0.0000000000
 Ag        13.0143003077        7.5138097860        0.0000000000
 Ag        15.9063670428        7.5138097860        0.0000000000
 Ag        18.7984337778        7.5138097860        0.0000000000
 Ag        21.6905005129        7.5138097860        0.0000000000
 Ag         5.7841334701       10.0184130480        0.0000000000
 Ag         8.6762002052       10.0184130480        0.0000000000
 Ag        11.5682669402       10.0184130480        0.0000000000
 Ag        14.4603336753       10.0184130480        0.0000000000
 Ag        17.3524004103       10.0184130480        0.0000000000
 Ag        20.2444671454       10.0184130480        0.0000000000
 Ag        23.1365338804       10.0184130480        0.0000000000
 Ag         1.4460333675        0.8348677540        2.3613626010
 Ag         4.3381001026        0.8348677540        2.3613626010
 Ag         7.2301668376        0.8348677540        2.3613626010
 Ag        10.1222335727        0.8348677540        2.3613626010
 Ag        13.0143003077        0.8348677540        2.3613626010
 Ag        15.9063670428        0.8348677540        2.3613626010
 Ag        18.7984337778        0.8348677540        2.3613626010
 Ag         2.8920667351        3.3394710160        2.3613626010
 Ag         5.7841334701        3.3394710160        2.3613626010
 Ag         8.6762002052        3.3394710160        2.3613626010
 Ag        11.5682669402        3.3394710160        2.3613626010
 Ag        14.4603336753        3.3394710160        2.3613626010
 Ag        17.3524004103        3.3394710160        2.3613626010
 Ag        20.2444671454        3.3394710160        2.3613626010
 Ag         4.3381001026        5.8440742780        2.3613626010
 Ag         7.2301668376        5.8440742780        2.3613626010
 Ag        10.1222335727        5.8440742780        2.3613626010
 Ag        13.0143003077        5.8440742780        2.3613626010
 Ag        15.9063670428        5.8440742780        2.3613626010
 Ag        18.7984337778        5.8440742780        2.3613626010
 Ag        21.6905005129        5.8440742780        2.3613626010
 Ag         5.7841334701        8.3486775400        2.3613626010
 Ag         8.6762002052        8.3486775400        2.3613626010
 Ag        11.5682669402        8.3486775400        2.3613626010
 Ag        14.4603336753        8.3486775400        2.3613626010
 Ag        17.3524004103        8.3486775400        2.3613626010
 Ag        20.2444671454        8.3486775400        2.3613626010
 Ag        23.1365338804        8.3486775400        2.3613626010
 Ag         7.2301668376       10.8532808020        2.3613626010
 Ag        10.1222335727       10.8532808020        2.3613626010
 Ag        13.0143003077       10.8532808020        2.3613626010
 Ag        15.9063670428       10.8532808020        2.3613626010
 Ag        18.7984337778       10.8532808020        2.3613626010
 Ag        21.6905005129       10.8532808020        2.3613626010
 Ag        24.5825672480       10.8532808020        2.3613626010
 Ag        -0.0000942856        1.6696547390        4.7222606545
 Ag         2.8917895872        1.6721040548        4.7223479113
 Ag         5.7831449204        1.6708218550        4.7220801248
 Ag         8.6737046480        1.6723150580        4.7228495130
 Ag        11.5697664356        1.6719765840        4.7226629062
 Ag        14.4594412982        1.6711304064        4.7218366647
 Ag        17.3508479800        1.6721979336        4.7224863436
 Ag         1.4478935006        4.1732362523        4.7265529306
 Ag         4.3244091490        4.1654950631        4.6990199605
 Ag         7.2470045086        4.1627804613        4.6947189196
 Ag        10.1216105680        4.1735012834        4.7287320228
 Ag        12.9961407190        4.1635541041        4.6934928945
 Ag        15.9184175986        4.1654613705        4.7010176930
 Ag        18.7947328668        4.1724744480        4.7281543844
 Ag         2.8911333662        6.6813340856        4.7210692963
 Ag         5.7837724459        6.6928335557        4.7016677620
 Ag         8.6737702028        6.6789075291        4.7245527397
 Ag        11.5695483767        6.6787973385        4.7252084781
 Ag        14.4593677934        6.6929358053        4.7028922064
 Ag        17.3518823218        6.6811740856        4.7194625579
 Ag        20.2437572575        6.6789950450        4.7255993581
 Ag         4.3365587783        9.1794970346        4.7271318864
 Ag         7.2297406481        9.1808475371        4.7264116066
 Ag        10.1216175433        9.1841885635        4.7261196874
 Ag        13.0135161876        9.1816795330        4.7271494621
 Ag        15.9057011092        9.1790539005        4.7266373790
 Ag        18.7964472031        9.1826445206        4.7263500510
 Ag        21.6914145700        9.1832725558        4.7274728363
 Ag         5.7841446950       11.6881636686        4.7207609689
 Ag         8.6751773290       11.6870872982        4.7218567853
 Ag        11.5677355121       11.6871613259        4.7213121053
 Ag        14.4588040813       11.6883999584        4.7207576687
 Ag        17.3527588504       11.6872855236        4.7201965004
 Ag        20.2429751869       11.6876653970        4.7215073607
 Ag        23.1359509677       11.6881199983        4.7206501335
 Ag        -0.0017155823        0.0028941191        7.0864600097
 Ag         2.8931012194       -0.0007568529        7.0863010530
 Ag         5.7825487671        0.0035401265        7.0863302153
 Ag         8.6741769972        0.0020386295        7.0881975731
 Ag        11.5689596150        0.0022451755        7.0859488446
 Ag        14.4599275588        0.0022141412        7.0879202252
 Ag        17.3526409432        0.0002009723        7.0868539961
 Ag         1.4445171975        2.4952666056        7.0835048319
 Ag         4.3363770549        2.4985467615        7.0832121335
 Ag         7.2350877225        2.4830231951        7.0855861208
 Ag        10.1215080114        2.4991012019        7.0712596870
 Ag        13.0092466275        2.4827555301        7.0870147446
 Ag        15.9053532350        2.4987001599        7.0817456965
 Ag        18.7998413200        2.4958644109        7.0828147276
 Ag         2.9020876383        5.0097538776        7.0622429684
 Ag         5.8645111681        4.9245384933        6.8340878030
 Ag         8.6920005594        5.0141003994        7.0606854194
 Ag        11.5522064641        5.0133941681        7.0627103573
 Ag        14.3781441228        4.9256440567        6.8396751999
 Ag        17.3417752001        5.0103412632        7.0612127352
 Ag        20.2435847434        5.0116767183        7.0526283469
 Ag         4.3263431132        7.5482796311        7.0199230189
 Ag         7.2244898493        7.5105250527        7.0659640527
 Ag        10.1214361437        7.5104292746        7.0531496022
 Ag        13.0182814093        7.5081115532        7.0622271533
 Ag        15.9188083741        7.5498538295        7.0208511969
 Ag        18.8008343186        7.5122488942        7.0618566918
 Ag        21.6863174751        7.5113215482        7.0600090222
 Ag         5.7814770380       10.0210723290        7.0792693958
 Ag         8.6771232279       10.0268595845        7.0829647952
 Ag        11.5653161772       10.0268294024        7.0826104826
 Ag        14.4636866240       10.0212064944        7.0788409207
 Ag        17.3463985734       10.0219666376        7.0854484026
 Ag        20.2439448206       10.0251998075        7.0714116121
 Ag        23.1387908413       10.0232144896        7.0844873149
 Ag         5.0281700282        6.0222026193        9.0609705249
 Ag        15.2337957348        6.0206445273        9.0579346065
  C         7.3113962707        2.5400846456       10.0704934363
  C         8.7064150043        2.5511552795       10.0753892416
  C         9.4292213640        3.7571554540       10.0951151032
  C         8.7706507806        5.0205520312       10.0886478138
  C         7.3414554572        5.0073914356       10.1570251513
  C         9.4468692301        6.2700847704       10.0899422189
  C         6.6815848318        3.7646010697       10.0862666109
  C         6.6549736782        6.2486461687       10.1081583894
  H         6.7182406707        1.6274492372       10.0690323125
  H         9.1985286772        1.5901853055       10.0816386734
  C         7.3136820803        7.5061679726       10.1103801014
  C         8.7467707830        7.5055048067       10.1055595511
  C         9.4281872489        8.7578519020       10.0992992158
  C         6.6709229636        8.7567362432       10.0858035094
  C         7.3097772171        9.9775601103       10.1006484155
  C         8.7060735405        9.9664373252       10.0693705859
  H         6.7221043071       10.8946737361       10.0984706011
  H         9.1995191455       10.9275670460       10.0928743172
  C        11.6067948910        9.9662250322       10.0605063704
  C        13.0036804447        9.9764965154       10.0829518331
  C        13.6410810280        8.7552526577       10.0683431115
  C        12.9964213734        7.5066078283       10.1126948091
  C        11.5642208042        7.5050305317       10.1070068944
  C        13.6543884806        6.2486054541       10.1075572597
  C        10.8843642490        8.7578887038       10.0981598949
  C        10.8635255364        6.2696614977       10.0898121098
  H        11.1132887776       10.9273795500       10.0858059064
  H        13.5905279030       10.8939022754       10.0690031765
  H        14.7249239984        8.7157634066       10.0570861143
  C        11.5390500907        5.0200520883       10.0872412197
  C        12.9685242914        5.0062502463       10.1668771510
  C        13.6299083341        3.7630015720       10.1078872397
  C        10.8804705021        3.7566597111       10.0962894120
  C        11.6039253201        2.5508318963       10.0838271247
  C        12.9985010566        2.5387284857       10.0880474877
  H        11.1121719986        1.5896958249       10.0896740794
  H        14.7196056664        3.7790935802       10.1426249780
  H        13.5927777436        1.6266981002       10.0997980189
  H         5.5918747097        3.7796990451       10.0768290614
  H         5.5873848616        8.7167062892       10.1216670455
  C        17.4317915879        2.5392501937       10.0798449246
  C        18.8272801679        2.5463925440       10.0584106330
  C        19.5523178301        3.7517065281       10.0976974711
  C        18.9004299491        5.0169901100       10.0998251158
  C        17.4725273173        5.0055550514       10.1516860891
  C        19.5698349817        6.2695491518       10.0909375257
  C        16.8042732368        3.7642856575       10.0895752098
  C        16.7931763209        6.2535668204       10.1590732337
  H        16.8406761870        1.6254347855       10.0668194205
  H        19.3240781653        1.5879728918       10.0844992673
  C        17.4453794388        7.5129407674       10.1278671883
  C        18.8769552041        7.5094828449       10.0884121399
  C        19.5513438947        8.7659039534       10.0977616303
  C        16.7939006609        8.7579527924       10.0862038412
  C        17.4305028543        9.9812775237       10.0902039132
  C        18.8265241301        9.9709447940       10.0865867389
  H        16.8434270830       10.8984987060       10.1005970388
  H        19.3239220489       10.9297429474       10.0902054715
  C        21.7314196679        9.9705685744       10.0775688137
  C        23.1275947902        9.9802089056       10.0724205639
  C        23.7629492156        8.7565576842       10.0677017703
  C        23.1098074606        7.5138411885       10.1307065015
  C        21.6788994127        7.5085203694       10.0890470759
  C        23.7604158789        6.2536854252       10.1608774580
  C        21.0063336628        8.7655468326       10.0962884088
  C        20.9850871479        6.2689492510       10.0910810453
  H        21.2335677026       10.9291977216       10.0826446608
  H        23.7136615519       10.8978587838       10.0709249948
  H        24.8504053039        8.7166643074       10.0576193088
  C        21.6542766483        5.0166841597       10.0980423881
  C        23.0826649989        5.0039489666       10.1631601965
  C        23.7519220989        3.7620504820       10.1112471088
  C        21.0022738889        3.7512689141       10.0983864076
  C        21.7277251739        2.5459678041       10.0667547183
  C        23.1226176667        2.5375762456       10.0974509029
  H        21.2311477762        1.5874737117       10.0927483165
  H        24.8452480737        3.7777763107       10.1435948389
  H        23.7150082222        1.6243615115       10.0980626260
  H        15.7108809420        3.7784694050       10.0782777492
  H        15.7065213655        8.7173903609       10.1214267859
     222
 i =        2, E =     -5591.9746774292
 Ag         0.0000000000        0.0000000000        0.0000000000
 Ag         2.8920667351        0.0000000000        0.0000000000
 Ag         5.7841334701        0.0000000000        0.0000000000
 Ag         8.6762002052        0.0000000000        0.0000000000
 Ag        11.5682669402        0.0000000000        0.0000000000
 Ag        14.4603336753        0.0000000000        0.0000000000
 Ag        17.3524004103        0.0000000000        0.0000000000
 Ag         1.4460333675        2.5046032620        0.0000000000
 Ag         4.3381001026        2.5046032620        0.0000000000
 Ag         7.2301668376        2.5046032620        0.0000000000
 Ag        10.1222335727        2.5046032620        0.0000000000
 Ag        13.0143003077        2.5046032620        0.0000000000
 Ag        15.9063670428        2.5046032620        0.0000000000
 Ag        18.7984337778        2.5046032620        0.0000000000
 Ag         2.8920667351        5.0092065240        0.0000000000
 Ag         5.7841334701        5.0092065240        0.0000000000
 Ag         8.6762002052        5.0092065240        0.0000000000
 Ag        11.5682669402        5.0092065240        0.0000000000
 Ag        14.4603336753        5.0092065240        0.0000000000
 Ag        17.3524004103        5.0092065240        0.0000000000
 Ag        20.2444671454        5.0092065240        0.0000000000
 Ag         4.3381001026        7.5138097860        0.0000000000
 Ag         7.2301668376        7.5138097860        0.0000000000
 Ag        10.1222335727        7.5138097860        0.0000000000
 Ag        13.0143003077        7.5138097860        0.0000000000
 Ag        15.9063670428        7.5138097860        0.0000000000
 Ag        18.7984337778        7.5138097860        0.0000000000
 Ag        21.6905005129        7.5138097860        0.0000000000
 Ag         5.7841334701       10.0184130480        0.0000000000
 Ag         8.6762002052       10.0184130480        0.0000000000
 Ag        11.5682669402       10.0184130480        0.0000000000
 Ag        14.4603336753       10.0184130480        0.0000000000
 Ag        17.3524004103       10.0184130480        0.0000000000
 Ag        20.2444671454       10.0184130480        0.0000000000
 Ag        23.1365338804       10.0184130480        0.0000000000
 Ag         1.4460333675        0.8348677540        2.3613626010
 Ag         4.3381001026        0.8348677540        2.3613626010
 Ag         7.2301668376        0.8348677540        2.3613626010
 Ag        10.1222335727        0.8348677540        2.3613626010
 Ag        13.0143003077        0.8348677540        2.3613626010
 Ag        15.9063670428        0.8348677540        2.3613626010
 Ag        18.7984337778        0.8348677540        2.3613626010
 Ag         2.8920667351        3.3394710160        2.3613626010
 Ag         5.7841334701        3.3394710160        2.3613626010
 Ag         8.6762002052        3.3394710160        2.3613626010
 Ag        11.5682669402        3.3394710160        2.3613626010
 Ag        14.4603336753        3.3394710160        2.3613626010
 Ag        17.3524004103        3.3394710160        2.3613626010
 Ag        20.2444671454        3.3394710160        2.3613626010
 Ag         4.3381001026        5.8440742780        2.3613626010
 Ag         7.2301668376        5.8440742780        2.3613626010
 Ag        10.1222335727        5.8440742780        2.3613626010
 Ag        13.0143003077        5.8440742780        2.3613626010
 Ag        15.9063670428        5.8440742780        2.3613626010
 Ag        18.7984337778        5.8440742780        2.3613626010
 Ag        21.6905005129        5.8440742780        2.3613626010
 Ag         5.7841334701        8.3486775400        2.3613626010
 Ag         8.6762002052        8.3486775400        2.3613626010
 Ag        11.5682669402        8.3486775400        2.3613626010
 Ag        14.4603336753        8.3486775400        2.3613626010
 Ag        17.3524004103        8.3486775400        2.3613626010
 Ag        20.2444671454        8.3486775400        2.3613626010
 Ag        23.1365338804        8.3486775400        2.3613626010
 Ag         7.2301668376       10.8532808020        2.3613626010
 Ag        10.1222335727       10.8532808020        2.3613626010
 Ag        13.0143003077       10.8532808020        2.3613626010
 Ag        15.9063670428       10.8532808020        2.3613626010
 Ag        18.7984337778       10.8532808020        2.3613626010
 Ag        21.6905005129       10.8532808020        2.3613626010
 Ag        24.5825672480       10.8532808020        2.3613626010
 Ag        -0.0004455001        1.6692205784        4.7202737586
 Ag         2.8882229735        1.6682089491        4.7210461297
 Ag         5.7816497955        1.6692736242        4.7203915230
 Ag         8.6752474810        1.6659467958        4.7190117008
 Ag        11.5671866844        1.6660011766        4.7187769347
 Ag        14.4579705473        1.6693192555        4.7199838675
 Ag        17.3522649072        1.6684914681        4.7210331933
 Ag         1.4461715580        4.1703249907        4.7257519554
 Ag         4.3058704286        4.1554840644        4.6665697410
 Ag         7.2802355150        4.1406379250        4.6380886472
 Ag        10.1212233782        4.1709971075        4.7221639068
 Ag        12.9622694400        4.1423709794        4.6374666140
 Ag        15.9339045636        4.1561694565        4.6702903381
 Ag        18.7946196452        4.1687697213        4.7276256283
 Ag         2.8858035193        6.6780773200        4.7048402561
 Ag         5.7838396883        6.7035445206        4.6689804014
 Ag         8.6713773979        6.6802524895        4.7144977225
 Ag        11.5695956189        6.6792037025        4.7146143511
 Ag        14.4578019270        6.7030050705        4.6707898180
 Ag        17.3556820852        6.6779077522        4.7027653593
 Ag        20.2424671190        6.6793487508        4.7154040958
 Ag         4.3329954124        9.1924519472        4.7133326637
 Ag         7.2320849376        9.1839886563        4.7275878192
 Ag        10.1206006959        9.1869455797        4.7242846687
 Ag        13.0092875400        9.1858854916        4.7287519226
 Ag        15.9070642011        9.1919312629        4.7123836098
 Ag        18.7940091816        9.1842888757        4.7251420955
 Ag        21.6921133378        9.1856028306        4.7266108393
 Ag         5.7832195706       11.6882182688        4.7193224612
 Ag         8.6738752580       11.6877201575        4.7210993221
 Ag        11.5672204387       11.6876493333        4.7194290365
 Ag        14.4578452560       11.6890316777        4.7195182518
 Ag        17.3515162670       11.6875554698        4.7194596663
 Ag        20.2419776894       11.6895773110        4.7189876844
 Ag        23.1354143071       11.6885936926        4.7197237877
 Ag        -0.0035513037        0.0032200927        7.0891388064
 Ag         2.8926389915       -0.0023347915        7.0886926273
 Ag         5.7802144325        0.0023333191        7.0889241916
 Ag         8.6748924839       -0.0020139926        7.0921391082
 Ag        11.5651706894       -0.0020137712        7.0880446555
 Ag        14.4620323449       -0.0001613243        7.0918714478
 Ag        17.3525001721       -0.0017841057        7.0891847753
 Ag         1.4440805501        2.4900899369        7.0861306540
 Ag         4.3366188932        2.4981752273        7.0808161215
 Ag         7.2402290182        2.4686058159        7.0897670802
 Ag        10.1208136615        2.4916660689        7.0620980826
 Ag        13.0030998422        2.4688580949        7.0913549897
 Ag        15.9018074845        2.4973314741        7.0786347714
 Ag        18.7997597600        2.4916473238        7.0850579125
 Ag         2.9191294656        5.0165170806        7.0491312464
 Ag         5.8807800584        4.9044601473        6.7945584800
 Ag         8.6965441139        5.0132975481        7.0422171309
 Ag        11.5461024782        5.0115385693        7.0466580950
 Ag        14.3592548568        4.9065463372        6.8027316137
 Ag        17.3233654365        5.0182404254        7.0476476263
 Ag        20.2428509740        5.0099384301        7.0268680463
 Ag         4.3040865614        7.5871119276        6.9432708133
 Ag         7.2105700995        7.5004810344        7.0547941195
 Ag        10.1205687780        7.5153078037        7.0273901751
 Ag        13.0299754569        7.4968769491        7.0491054726
 Ag        15.9407362853        7.5910453267        6.9424499643
 Ag        18.8014313291        7.5098693831        7.0438169325
 Ag        21.6836250781        7.5083148246        7.0405862379
 Ag         5.7830117200       10.0284732338        7.0757858235
 Ag         8.6756370567       10.0333136574        7.0849344208
 Ag        11.5646549359       10.0320790918        7.0842759428
 Ag        14.4615697082       10.0295206664        7.0749853063
 Ag        17.3463014168       10.0333229482        7.0884386217
 Ag        20.2422958969       10.0320360688        7.0610961234
 Ag        23.1357824828       10.0347514726        7.0867155282
 Ag         5.0421944875        6.1509335619        8.9841048955
 Ag        15.2369796556        6.1443900352        8.9806060067
  C         7.3365641253        2.5566979067       10.0658112246
  C         8.7264422190        2.5231751719       10.0831622400
  C         9.4366338125        3.7342755569       10.0879674955
  C         8.7815454510        5.0001286506       10.1525498891
  C         7.3663141808        5.0167997304       10.1438344371
  C         9.4522896773        6.2536077362       10.0960895334
  C         6.7135592267        3.7762769045       10.1323475900
  C         6.7068908548        6.2536085185       10.1149075500
  H         6.7480951587        1.6374121961       10.0634676721
  H         9.2421754012        1.5725961766       10.0842443411
  C         7.3698215739        7.4899118964       10.1402471772
  C         8.7918408168        7.5110220308       10.1364204298
  C         9.4346685491        8.7845648524       10.1018038523
  C         6.7039286412        8.7263717362       10.1132468559
  C         7.3270957264        9.9490611418       10.0791979067
  C         8.7183594914        9.9950817932       10.0787815491
  H         6.7533839701       10.8786855740       10.0998838290
  H         9.2400574091       10.9433696663       10.0932705594
  C        11.5931381120        9.9938558669       10.0711894683
  C        12.9851211377        9.9479682882       10.0617998272
  C        13.6062427787        8.7244763426       10.0922651801
  C        12.9410939735        7.4880059857       10.1388631992
  C        11.5199532565        7.5117147863       10.1420059085
  C        13.6025997554        6.2490127341       10.1162029981
  C        10.8756321644        8.7840440290       10.0997808358
  C        10.8580291228        6.2543023029       10.0957236542
  H        11.0730070636       10.9428558697       10.0858982220
  H        13.5595830567       10.8776300523       10.0694784102
  H        14.6753956687        8.7285609496       10.0518885864
  C        11.5260653397        4.9998401865       10.1576935206
  C        12.9406885523        5.0142562911       10.1493207339
  C        13.5963541085        3.7755381162       10.1639639184
  C        10.8725518940        3.7333588020       10.0901638487
  C        11.5839318666        2.5226581647       10.0904762423
  C        12.9733639623        2.5553381125       10.0849302037
  H        11.0684726820        1.5719192729       10.0922668974
  H        14.6687402199        3.7760399274       10.1670735006
  H        13.5621943996        1.6363123257       10.0934729335
  H         5.6416980803        3.7766176105       10.0831669112
  H         5.6351073601        8.7301868378       10.1374668950
  C        17.4597666486        2.5539905559       10.0662517188
  C        18.8503742173        2.5203010727       10.0668939900
  C        19.5605353021        3.7344400562       10.0863271326
  C        18.9093867372        5.0000070180       10.1582444015
  C        17.4960148186        5.0159844859       10.1787488948
  C        19.5762446157        6.2554748562       10.0942275856
  C        16.8386571935        3.7729646797       10.1386648585
  C        16.8374112382        6.2558588595       10.1716976206
  H        16.8679292003        1.6362532370       10.0626042031
  H        19.3641161664        1.5687856668       10.0841871482
  C        17.4956405963        7.4916023077       10.1661751472
  C        18.9151966208        7.5145668273       10.1287941665
  C        19.5577425535        8.7899453377       10.0938391043
  C        16.8326536588        8.7278151853       10.1166004441
  C        17.4510112937        9.9556301779       10.0760264308
  C        18.8417601980        9.9983743002       10.0959196819
  H        16.8727164816       10.8829215604       10.0980333888
  H        19.3607233345       10.9483501202       10.0950054348
  C        21.7153486388        9.9971447631       10.0883360457
  C        23.1062899966        9.9545611857       10.0569577765
  C        23.7225754405        8.7258135112       10.0956830441
  C        23.0610306390        7.4899918462       10.1654278040
  C        21.6420790614        7.5152908138       10.1338031266
  C        23.7167098439        6.2512414094       10.1789753874
  C        20.9979129500        8.7893394395       10.0910273956
  C        20.9802765516        6.2559729503       10.0932709677
  H        21.1971738609       10.9474223156       10.0865610199
  H        23.6847845912       10.8820918925       10.0673441483
  H        24.7938530482        8.7285183408       10.0529100247
  C        21.6440644880        4.9994741372       10.1634969654
  C        23.0573425346        5.0126266556       10.1851469044
  C        23.7169392818        3.7709259316       10.1703643505
  C        20.9939360798        3.7331952708       10.0874575621
  C        21.7049538368        2.5192818140       10.0739045387
  C        23.0951530822        2.5519409011       10.0847734869
  H        21.1910267170        1.5678610678       10.0928215986
  H        24.7914039425        3.7762678567       10.1747039434
  H        23.6871081909        1.6343782402       10.0935044273
  H        15.7644253706        3.7773797946       10.0916674445
  H        15.7613403818        8.7297414490       10.1368942148
     222
 i =        3, E =     -5591.9908329380
 Ag         0.0000000000        0.0000000000        0.0000000000
 Ag         2.8920667351        0.0000000000        0.0000000000
 Ag         5.7841334701        0.0000000000        0.0000000000
 Ag         8.6762002052        0.0000000000        0.0000000000
 Ag        11.5682669402        0.0000000000        0.0000000000
 Ag        14.4603336753        0.0000000000        0.0000000000
 Ag        17.3524004103        0.0000000000        0.0000000000
 Ag         1.4460333675        2.5046032620        0.0000000000
 Ag         4.3381001026        2.5046032620        0.0000000000
 Ag         7.2301668376        2.5046032620        0.0000000000
 Ag        10.1222335727        2.5046032620        0.0000000000
 Ag        13.0143003077        2.5046032620        0.0000000000
 Ag        15.9063670428        2.5046032620        0.0000000000
 Ag        18.7984337778        2.5046032620        0.0000000000
 Ag         2.8920667351        5.0092065240        0.0000000000