32
Lattice="3.8018688908211424 0.0 0.0 0.0 3.8018688908211424 0.0 0.0 0.0 35.966044686581526" Properties=species:S:1:pos:R:3:forces:R:3 energy=-28263.90014889909 pbc="T T T"
Sr       1.90093445       1.90093445       0.00000000      -0.00000000      -0.00000000       1.19781037
O        0.00000000       0.00000000       0.00000000       0.00000000       0.00000000      -1.24359606
Sr       1.90093445       1.90093445       3.81200804      -0.00000000      -0.00000000       0.11763980
Cr       0.00000000       0.00000000       1.90600402      -0.00000000      -0.00000000       0.48113850
O        1.90093445       0.00000000       1.90600402      -0.00000000      -0.00000000      -0.28109048
O        0.00000000       1.90093445       1.90600402      -0.00000000      -0.00000000      -0.28109048
O        0.00000000       0.00000000       3.81200804      -0.00000000      -0.00000000       0.20767623
Sr       1.90093444       1.90093444       7.63426242      -0.00000000      -0.00000000       0.00645990
Cr       0.00000000       0.00000000       5.71801206      -0.00000000      -0.00000000      -0.17223640
O        1.90093445       0.00000000       5.71801206      -0.00000000      -0.00000000       0.00166736
O        0.00000000       1.90093445       5.71801206      -0.00000000      -0.00000000       0.00166736
O       -0.00000000      -0.00000000       7.62798441      -0.00000000      -0.00000000       0.00259707
Sr       1.90093444       1.90093444      11.46271183      -0.00000000      -0.00000000       0.00394870
Cr      -0.00000001      -0.00000000       9.55185843      -0.00000000      -0.00000000       0.01164787
O        1.90093444      -0.00000000       9.54503317      -0.00000000      -0.00000000       0.00459199
O       -0.00000001       1.90093444       9.54503318      -0.00000000      -0.00000000       0.00459173
O       -0.00000000      -0.00000000      11.45690098       0.00000000       0.00000000      -0.00442564
Sr       1.90093446       1.90093445      15.29880971       0.00000000       0.00000000      -0.00120302
Cr      -0.00000002      -0.00000001      13.37074265      -0.00000026      -0.00000000       0.00534172
O        1.90093443      -0.00000000      13.36276068      -0.00000000      -0.00000000      -0.01444034
O       -0.00000001       1.90093444      13.36276067      -0.00000000      -0.00000000      -0.01444034
O       -0.00000001      -0.00000001      15.26302713      -0.00000026      -0.00000000      -0.01246342
Sr       1.90093423       1.90093439      19.18200227      -0.00000206      -0.00000077      -0.00586726
Cr       0.00000024       0.00000007      17.20857163       0.00000257       0.00000077       0.00883997
O        1.90093446       0.00000001      17.17346591       0.00000026       0.00000000      -0.00175555
O        0.00000004       1.90093445      17.17346591       0.00000026       0.00000000      -0.00175555
O        0.00000054       0.00000016      19.06536301       0.00000566       0.00000180      -0.01462623
Cr      -0.00000394      -0.00000117      21.00011452      -0.00004088      -0.00001234      -0.00211987
O        1.90093704       0.00000008      20.87625353       0.00002700       0.00000077       0.00212245
O        0.00000027       1.90093522      20.87625353       0.00000283       0.00000823       0.00212245
O        0.00000111       0.00000035      22.75675750       0.00001183       0.00000360      -0.00924774
H       -0.00000054      -0.00000018      23.71841729      -0.00000591      -0.00000180       0.00049494
